
     Program PWSCF v.6.7MaX starts on 16Nov2023 at 10: 2:18 

     This program is part of the open-source Quantum ESPRESSO suite
     for quantum simulation of materials; please cite
         "P. Giannozzi et al., J. Phys.:Condens. Matter 21 395502 (2009);
         "P. Giannozzi et al., J. Phys.:Condens. Matter 29 465901 (2017);
          URL http://www.quantum-espresso.org", 
     in publications or presentations arising from this work. More details at
     http://www.quantum-espresso.org/quote

     Parallel version (MPI), running on     8 processors

     MPI processes distributed on     1 nodes
     R & G space division:  proc/nbgrp/npool/nimage =       8
     Waiting for input...
     Reading input from standard input

     Current dimensions of program PWSCF are:
     Max number of different atomic species (ntypx) = 10
     Max number of k-points (npk) =  40000
     Max angular momentum in pseudopotentials (lmaxx) =  3

     Subspace diagonalization in iterative solution of the eigenvalue problem:
     one sub-group per band group will be used
     scalapack distributed-memory algorithm (size of sub-group:  2*  2 procs)


     Parallelization info
     --------------------
     sticks:   dense  smooth     PW     G-vecs:    dense   smooth      PW
     Min          31      31     10                  340      340      66
     Max          32      32     11                  344      344      69
     Sum         253     253     85                 2741     2741     537



     bravais-lattice index     =            2
     lattice parameter (alat)  =      10.2631  a.u.
     unit-cell volume          =     270.2564 (a.u.)^3
     number of atoms/cell      =            2
     number of atomic types    =            1
     number of electrons       =         8.00
     number of Kohn-Sham states=            4
     kinetic-energy cutoff     =      18.0000  Ry
     charge density cutoff     =      72.0000  Ry
     scf convergence threshold =      1.0E-06
     mixing beta               =       0.7000
     number of iterations used =            8  plain     mixing
     Exchange-correlation= SLA  PZ   NOGX NOGC
                           (   1   1   0   0   0   0   0)

     celldm(1)=  10.263103  celldm(2)=   0.000000  celldm(3)=   0.000000
     celldm(4)=   0.000000  celldm(5)=   0.000000  celldm(6)=   0.000000

     crystal axes: (cart. coord. in units of alat)
               a(1) = (  -0.500000   0.000000   0.500000 )  
               a(2) = (   0.000000   0.500000   0.500000 )  
               a(3) = (  -0.500000   0.500000   0.000000 )  

     reciprocal axes: (cart. coord. in units 2 pi/alat)
               b(1) = ( -1.000000 -1.000000  1.000000 )  
               b(2) = (  1.000000  1.000000  1.000000 )  
               b(3) = ( -1.000000  1.000000 -1.000000 )  


     PseudoPot. # 1 for Si read from file:
     /usr/share/espresso/pseudo/Si.pz-vbc.UPF
     MD5 check sum: a974d1b8727157e37210f3f86afb6210
     Pseudo is Norm-conserving, Zval =  4.0
     Generated by new atomic code, or converted to UPF format
     Using radial grid of  431 points,  2 beta functions with: 
                l(1) =   0
                l(2) =   1

     atomic species   valence    mass     pseudopotential
        Si             4.00    28.08500     Si( 1.00)

     48 Sym. Ops., with inversion, found (24 have fractional translation)



   Cartesian axes

     site n.     atom                  positions (alat units)
         1           Si  tau(   1) = (   0.0000000   0.0000000   0.0000000  )
         2           Si  tau(   2) = (  -0.2500000   0.2500000   0.2500000  )

     number of k points=    10
                       cart. coord. in units 2pi/alat
        k(    1) = (  -0.1250000   0.1250000   0.1250000), wk =   0.0625000
        k(    2) = (  -0.3750000   0.3750000  -0.1250000), wk =   0.1875000
        k(    3) = (   0.3750000  -0.3750000   0.6250000), wk =   0.1875000
        k(    4) = (   0.1250000  -0.1250000   0.3750000), wk =   0.1875000
        k(    5) = (  -0.1250000   0.6250000   0.1250000), wk =   0.1875000
        k(    6) = (   0.6250000  -0.1250000   0.8750000), wk =   0.3750000
        k(    7) = (   0.3750000   0.1250000   0.6250000), wk =   0.3750000
        k(    8) = (  -0.1250000  -0.8750000   0.1250000), wk =   0.1875000
        k(    9) = (  -0.3750000   0.3750000   0.3750000), wk =   0.0625000
        k(   10) = (   0.3750000  -0.3750000   1.1250000), wk =   0.1875000

     Dense  grid:     2741 G-vectors     FFT dimensions: (  20,  20,  20)

     Estimated max dynamical RAM per process >       0.33 MB

     Estimated total dynamical RAM >       2.63 MB

     Initial potential from superposition of free atoms

     starting charge    7.99901, renormalised to    8.00000
     Starting wfcs are    8 randomized atomic wfcs

     total cpu time spent up to now is        0.1 secs

     Self-consistent Calculation

     iteration #  1     ecut=    18.00 Ry     beta= 0.70
     Davidson diagonalization with overlap
     ethr =  1.00E-02,  avg # of iterations =  2.0

     Threshold (ethr) on eigenvalues was too large:
     Diagonalizing with lowered threshold

     Davidson diagonalization with overlap
     ethr =  6.70E-04,  avg # of iterations =  1.0

     total cpu time spent up to now is        0.1 secs

     total energy              =     -15.84095179 Ry
     estimated scf accuracy    <       0.05883713 Ry

     iteration #  2     ecut=    18.00 Ry     beta= 0.70
     Davidson diagonalization with overlap
     ethr =  7.35E-04,  avg # of iterations =  1.0

     total cpu time spent up to now is        0.1 secs

     total energy              =     -15.84385928 Ry
     estimated scf accuracy    <       0.00219259 Ry

     iteration #  3     ecut=    18.00 Ry     beta= 0.70
     Davidson diagonalization with overlap
     ethr =  2.74E-05,  avg # of iterations =  2.5

     total cpu time spent up to now is        0.1 secs

     total energy              =     -15.84429292 Ry
     estimated scf accuracy    <       0.00007003 Ry

     iteration #  4     ecut=    18.00 Ry     beta= 0.70
     Davidson diagonalization with overlap
     ethr =  8.75E-07,  avg # of iterations =  2.8

     total cpu time spent up to now is        0.1 secs

     total energy              =     -15.84431393 Ry
     estimated scf accuracy    <       0.00000240 Ry

     iteration #  5     ecut=    18.00 Ry     beta= 0.70
     Davidson diagonalization with overlap
     ethr =  3.00E-08,  avg # of iterations =  4.0

     total cpu time spent up to now is        0.2 secs

     End of self-consistent calculation

          k =-0.1250 0.1250 0.1250 (   335 PWs)   bands (ev):

    -5.6713   4.4615   5.7705   5.7705

          k =-0.3750 0.3750-0.1250 (   345 PWs)   bands (ev):

    -4.6246   1.4358   3.7344   5.2806

          k = 0.3750-0.3750 0.6250 (   350 PWs)   bands (ev):

    -3.4473  -0.6995   3.7690   4.4884

          k = 0.1250-0.1250 0.3750 (   344 PWs)   bands (ev):

    -5.1346   2.8399   4.7336   4.8106

          k =-0.1250 0.6250 0.1250 (   342 PWs)   bands (ev):

    -4.0821   1.1393   3.3706   3.8382

          k = 0.6250-0.1250 0.8750 (   353 PWs)   bands (ev):

    -2.3984  -0.8484   1.9634   3.0752

          k = 0.3750 0.1250 0.6250 (   348 PWs)   bands (ev):

    -3.6537   0.2289   2.7170   4.1165

          k =-0.1250-0.8750 0.1250 (   348 PWs)   bands (ev):

    -2.5807  -0.7419   2.5955   3.3605

          k =-0.3750 0.3750 0.3750 (   353 PWs)   bands (ev):

    -4.1798   0.1040   4.9659   4.9659

          k = 0.3750-0.3750 1.1250 (   355 PWs)   bands (ev):

    -2.9434  -0.5729   2.0369   4.1620

     highest occupied level (ev):     5.7705

!    total energy              =     -15.84431527 Ry
     estimated scf accuracy    <       0.00000012 Ry

     The total energy is the sum of the following terms:
     one-electron contribution =       4.65453407 Ry
     hartree contribution      =       1.09181333 Ry
     xc contribution           =      -4.79481201 Ry
     ewald contribution        =     -16.79585066 Ry

     convergence has been achieved in   5 iterations

     Writing output data file ./pwscf.save/

     init_run     :      0.02s CPU      0.04s WALL (       1 calls)
     electrons    :      0.08s CPU      0.09s WALL (       1 calls)

     Called by init_run:
     wfcinit      :      0.01s CPU      0.02s WALL (       1 calls)
     potinit      :      0.00s CPU      0.00s WALL (       1 calls)
     hinit0       :      0.00s CPU      0.02s WALL (       1 calls)

     Called by electrons:
     c_bands      :      0.07s CPU      0.08s WALL (       6 calls)
     sum_band     :      0.01s CPU      0.01s WALL (       6 calls)
     v_of_rho     :      0.00s CPU      0.00s WALL (       6 calls)
     mix_rho      :      0.00s CPU      0.00s WALL (       6 calls)

     Called by c_bands:
     init_us_2    :      0.00s CPU      0.00s WALL (     130 calls)
     cegterg      :      0.07s CPU      0.08s WALL (      60 calls)

     Called by *egterg:
     cdiaghg      :      0.03s CPU      0.04s WALL (     183 calls)
     h_psi        :      0.03s CPU      0.04s WALL (     203 calls)
     g_psi        :      0.00s CPU      0.00s WALL (     133 calls)

     Called by h_psi:
     h_psi:calbec :      0.00s CPU      0.01s WALL (     203 calls)
     vloc_psi     :      0.02s CPU      0.03s WALL (     203 calls)
     add_vuspsi   :      0.00s CPU      0.00s WALL (     203 calls)

     General routines
     calbec       :      0.00s CPU      0.01s WALL (     203 calls)
     fft          :      0.00s CPU      0.02s WALL (      18 calls)
     ffts         :      0.00s CPU      0.00s WALL (       6 calls)
     fftw         :      0.02s CPU      0.03s WALL (    1732 calls)

     Parallel routines
     fft_scatt_xy :      0.00s CPU      0.00s WALL (    1756 calls)
     fft_scatt_yz :      0.01s CPU      0.02s WALL (    1756 calls)

     PWSCF        :      0.12s CPU      0.17s WALL


   This run was terminated on:  10: 2:18  16Nov2023            

=------------------------------------------------------------------------------=
   JOB DONE.
=------------------------------------------------------------------------------=
